[Molden Format]
[Molpro variables]
_NUMVAR=  937.0000000000000    
_AVOGAD= 0.6022136736000000E+24
_BOLTZ= 0.1380658000000000E-22
_CLIGHT=  29979245800.00000    
_EV= 0.3674932379085202E-01
_ENULL= 0.8854187817000000E-11
_KJOULE= 0.3808798324128737E-03
_KJOULE/MOL= 0.3808798324128737E-03
_CM= 0.4556335267302901E-05
_CM-1= 0.4556335267302901E-05
_DEB2SI= 0.3335641000000000E-29
_AMU2AU=  1822.888390000000    
_KCAL= 0.1593601117815568E-02
_KCAL/MOL= 0.1593601117815568E-02
_KELVIN= 0.3166811411060229E-05
_JOULE= 0.4359748200000000E-17
_HERTZ= 0.1519829846004524E-15
_HZ= 0.1519829846004524E-15
_JPCAL=  4.184000000000000    
_PLANCK= 0.6626075540000000E-33
_TOA= 0.5291772109200000    
_TOANG= 0.5291772109200000    
_TORAD= 0.1745329251994330E-01
_TOCM=  219474.6306700000    
_TODEBYE=  2.541580000000000    
_TOE= 0.4803242000000000E-09
_TOEV=  27.21138505000000    
_TOHERTZ=  6579683920729000.    
_TOHZ=  6579683920729000.    
_TOK=  315775.0400000000    
_TOKCAL=  627.5096000000000    
_TOKELVIN=  315775.0400000000    
_TOKJ=  2625.500000000000    
_TOKJOULE=  2625.500000000000    
_TOKG= 0.1660565586000000E-26
_ANG=  1.889726124565062    
_ANGSTROM=  1.889726124565062    
_RPAREF=  0.000000000000000    
_RPADISS=  0.000000000000000    
_IGNORE_UNDEF=  2.000000000000000    
_STRICTCHECK=  0.000000000000000    
!SEWARD=  0.000000000000000    
!MULTI=  0.000000000000000    
_SEW_ONEEL=  0.000000000000000    
_CPPDONE=FALSE
_DKROLL_DONE=  0.000000000000000    
_FNUC_DONE=  0.000000000000000    
_FOCKDONE=TRUE
_GRADONE=FALSE
_HESSDONE=FALSE
_INTDONE=TRUE
_SCFDONE=TRUE
_MODUL_BLOCK=FALSE
_MODUL_CUDA=FALSE
_MODUL_SLATER=FALSE
_MODUL_MRCC=FALSE
_MODUL_NBO6=FALSE
_MODUL_NECI=FALSE
_MODUL_AIMS=FALSE
_MODUL_GECCO=FALSE
_ISWINDOWS=FALSE
_MRCC_EXEC=
_FITC_AO_SAVED=FALSE
_FITC_MO_SAVED=FALSE
_SHARED_FS=TRUE
_LSTYP=SEWARD
_INTYP=INTS
_GEOMTYP=ZMAT
_GRADTYP=ALASKA
_DIRECT=FALSE
_DKHO= -1.000000000000000    
_FNUC=  0.000000000000000    
_SYNCM=  0.000000000000000    
_BASIS=VDZ
_ZORIENT=  1.000000000000000    
_NELEC=  8.000000000000000    
!SPIN=  0.000000000000000    
_QSDSTEP=  0.000000000000000    
_QSDIRC=  0.000000000000000    
_PROGRAM=MULTI
_CPUSTEP= 0.2700000000000000    
_SYSSTEP= 0.4000000000000004E-01
_WALLSTEP= 0.4700000000000000    
!DFSCF=  0.000000000000000    
!SCSGRD=  0.000000000000000    
_CPUTOT=  3.460000000000000    
_DFTEXFAC=  1.000000000000000    
_DMX= 0.5052160623338213E-08
_DMY= 0.5732962303712193E-08
_DMZ= 0.6671212224907472    
_DMX_SCF=-0.3997287545062467E-14
_DMY_SCF= 0.1566151722198761E-13
_DMZ_SCF= 0.7637633528415073    
_HOMO=  4.100000000000000    
_EHOMO=-0.3897913795636977    
_LUMO=  5.100000000000000    
_ELUMO= 0.6277382144764582E-01
_ENERGY= -38.93641327961937    
_ENERGY_METHOD=MULTI
_ENERGY_BASIS=cc-pVDZ
_GEOMETRY_METHOD=
_GEOMETRY_BASIS=
_ENUC=  5.988926455290773    
_EPS1= -11.29509023973634    
_GRADEXFAC=  9999.000000000000    
_GRADMETHOD=TRUE
_NMRMETHOD=  0.000000000000000    
_NMRMAGNET=  0.000000000000000    
!GRID_FREEZE= -1.000000000000000    
_ITERATIONS=  4.000000000000000    
_LASTNELEC=  6.000000000000000    
_LASTSPIN=  0.000000000000000    
_LASTSYM=  1.000000000000000    
_MPP_PROG=  1.000000000000000    
_MSNSTATES=  0.000000000000000    
_RS2PHASE=  0.000000000000000    
_IPROC_MPP=  0.000000000000000    
_IPROC_MPPX=  0.000000000000000    
_NPROC_MPP=  12.00000000000000    
_NPROC_MPPX=  12.00000000000000    
_NPROC_SMP=  1.000000000000000    
_NUMSTEP=  0.000000000000000    
_ORBITAL=  2141.200000000000    
_PI=  3.141592653589793    
!MCACT=  6.000000000000000    
!MCCLOSED=  1.000000000000000    
!MCFREEZE=  0.000000000000000    
!MCMS2=  0.000000000000000    
!MCNEL=  6.000000000000000    
!MCNSTSYM=  1.000000000000000    
!MCSTATE=  1.000000000000000    
!MCSYM=  1.000000000000000    
!MCWEIGHT=  1.000000000000000    
_SEIG_MIN= 0.1639049293030297E-01
_SEWPROP=TRUE
_STATUS=  1.000000000000000    
_SYSTOT= 0.4400000000000000    
_VERSION=  2019001.000000000    
_WALLTOT=  4.480000000000000    
_DATE=12-Jun-19
_LASTORB=MCSCF
_MACHINE= 64 bit mpp version
_OUTPUT=/home/rappe/ch2vdz.xml
_PGROUP=C1
_TIME=18:44:50
_LIBMOL=/usr/local/molpro/molpro_2019_1_linux_x86_64_i8/lib/
_VIGRDC=  0.000000000000000    
!VIBCNT=  0.000000000000000    
!RGHFCNT=  0.000000000000000    
!SURFREC=  0.000000000000000    
!XSURFREC=  0.000000000000000    
!ROTREC=  0.000000000000000    
!POLYREC=  0.000000000000000    
!DIPREC=  0.000000000000000    
!DIP4DREC=  0.000000000000000    
!DIPROT=  0.000000000000000    
!DIP4DROT=  0.000000000000000    
!PTREC=  0.000000000000000    
!PT4DREC=  0.000000000000000    
!VSCFREC=  0.000000000000000    
!VCIREC=  0.000000000000000    
!PVCIREC=  0.000000000000000    
!VMP2REC=  0.000000000000000    
!VMCSCFREC=  0.000000000000000    
!VMRCIREC=  0.000000000000000    
!VIBSTATEREC=  0.000000000000000    
!VIBSTATECNT=  0.000000000000000    
!VIBINFO=  0.000000000000000    
!GAREC=  0.000000000000000    
!SCFORB=  21002.00000000000    
!MCORB=  21412.00000000000    
!NEWMOL= -1.000000000000000    
!NEWSYM= -1.000000000000000    
_SLFILES=slscratch
_NGSSTO=  9.000000000000000    
_SIN=SIN
_COS=COS
_TAN=TAN
_ACOS=ACOS
_ASIN=ASIN
_ATAN=ATAN
_COSH=COSH
_SINH=SINH
_TANH=TANH
_ABS=ABS
_MOD=MOD
_ERF=ERF
_REFC=REFC
_ERFC=ERFC
_HYPOT=HYPOT
_J0=J0
_J1=J1
_JN=JN
_GAMMA=GAMMA
_LGAMMA=LGAMMA
_Y0=Y0
_Y1=Y1
_YN=YN
_EXP=EXP
_LOG=LOG
_LOG10=LOG10
_SQRT=SQRT
_INT=INT
_NINT=NINT
_MAX=MAX
_MIN=MIN
_COSMO=  0.000000000000000    
_COSMOIT=  0.000000000000000    
_COSMOES=  0.000000000000000    
_COSMOEDS=  0.000000000000000    
_COSMOEC=  0.000000000000000    
_COSMOEDCORR=  0.000000000000000    
_FEPSI=  1.000000000000000    
_SL_IsMM=  0.000000000000000    
_SL_NSYM=  1.000000000000000    
_SL_System_BitSw=  0.000000000000000    
_SL_Unique_atoms=  0.000000000000000    
_SL_GRAD=  0.000000000000000    
_SL_MAXUPD_Hess=  5.000000000000000    
_SL_N_PRINT_COD=  5.000000000000000    
_SL_PRINT_CODES=  0.000000000000000    
_SL_BasType=  0.000000000000000    
_SL_Energy_Pred=  0.000000000000000    
_SL_New_Coords=  0.000000000000000    
_SL_Total_Nuclea=  0.000000000000000    
_SL_Highest_Mltp=  0.000000000000000    
_SL_Ref_Geom=  0.000000000000000    
_SL_Symmetry_ope=  1.000000000000000    
_SL_agrad=  0.000000000000000    
_SL_GrdMax=  0.000000000000000    
_SL_GrdNorm=  0.000000000000000    
_SL_GrdRMS=  0.000000000000000    
_SL_Hss_Q=  0.000000000000000    
_SL_Hss_X=  0.000000000000000    
_SL_BMxOld=  0.000000000000000    
_SL_KtB=  0.000000000000000    
_SL_TROld=  0.000000000000000    
_SL_No_of_Intern=  0.000000000000000    
_SL_Hess=  0.000000000000000    
_SL_K=  0.000000000000000    
!LATTICE= -1.000000000000000    
!NEWLATTICE=  0.000000000000000    
!LATGRAD_VAR=FALSE
!SEW_LATTICE=  1.000000000000000    
!AIC_ONEEL=  0.000000000000000    
!LOCAL=  0.000000000000000    
!SAVEDOM= -1.000000000000000    
!RESTDOM= -1.000000000000000    
!SAVEDOM_HF= -1.000000000000000    
!RESTDOM_HF= -1.000000000000000    
!HESSREC=  0.000000000000000    
!FREQREC=  0.000000000000000    
!NMODREC=  0.000000000000000    
!GTASKS=  0.000000000000000    
!HTASKS=  0.000000000000000    
!SAVEDOM_EOM= -1.000000000000000    
!RESTDOM_EOM= -1.000000000000000    
!GRADSTATE= -1.000000000000000    
!THRCHG= 0.1000000000000000    
!DEBUG= -1.000000000000000    
!CFIT_CPHF=  0.000000000000000    
!RDOMAUX_CPHF=  3.000000000000000    
!THRAO_CPHF= 0.1000000000000000E-09
!THRMO_CPHF= 0.1000000000000000E-08
!THROV_CPHF= 0.1000000000000000E-11
!THRSW_CPHF= 0.1000000000000000E-09
!THRPROD_CPHF= 0.1000000000000000E-08
!THRAOPR_CPHF= 0.1000000000000000E-11
!CFIT_SCFGRD=  0.000000000000000    
!RDOMAUX_SCFGRD=  7.000000000000000    
!THRAO_SCFGRD= 0.1000000000000000E-09
!THRMO_SCFGRD= 0.1000000000000000E-08
!THROV_SCFGRD= 0.1000000000000000E-11
!THRSW_SCFGRD= 0.1000000000000000E-09
!THRPROD_SCFGRD= 0.1000000000000000E-08
!THRAOPR_SCFGRD= 0.1000000000000000E-11
!LOCFIT_SCF=  0.000000000000000    
!LOCFIT_MP2= -1.000000000000000    
_RIDOM=  0.000000000000000    
!CC2_METHOD=  0.000000000000000    
_BASIS2006=FALSE
_SVDDEL= -1.000000000000000    
_SVDDELA= -1.000000000000000    
_SVDDELP= -1.000000000000000    
_SVDDELF= -1.000000000000000    
_SVDDELS= -1.000000000000000    
_SVDDEL_ABS= -1.000000000000000    
_SVDDELA_ABS= -1.000000000000000    
_SVDDELP_ABS= -1.000000000000000    
_SVDDELF_ABS= -1.000000000000000    
_SVDDELS_ABS= -1.000000000000000    
_MAXBASIS=  0.000000000000000    
!OPT_CONICAL=  0.000000000000000    
!CLEARSP_JGRID=  0.000000000000000    
_GRDHYBR=  0.000000000000000    
_STATEGRAD=  1.000000000000000    
_4EXT_NDISKS=  1.000000000000000    
!EMBEDFLAG=  1.000000000000000    
!EMBED=FALSE
!EMBED_F12=FALSE
!EMBEDNUC=  0.000000000000000    
_EMBEDENERGY=  0.000000000000000    
!EMBED_DFC=FALSE
!NUM_VOIDS=  0.000000000000000    
_IBODY=  0.000000000000000    
_EMBE_CORR=  0.000000000000000    
!EMBED_PROJ=FALSE
!EMB_PROJ_ZMU=  1000000.000000000    
!CORRECTION_HF=  0.000000000000000    
!EMBED_AORB=  0.000000000000000    
!EMBED_NACORR=  0.000000000000000    
!EMBED_MP2=FALSE
!EMBED_TRUNC_PERTURBATION=FALSE
!EMBED_FROZEN=  0.000000000000000    
!EMBED_ACTIVE=  0.000000000000000    
_CHANGE_BASIS=FALSE
_RESTORE_BASIS=FALSE
_FIX_EMBED_GUESS=FALSE
_EMBED_SCF=FALSE
_HUZINAGA_T=FALSE
_HUZINAGA_F=FALSE
_HUZINAGA=FALSE
_HUZINAGA_CORRECT=FALSE
!FASTLATGRAD=  1.000000000000000    
!FASTVLAMBDA= -1.000000000000000    
!IFORCE= -1.000000000000000    
_SINDEX=  0.000000000000000    
_AVDOM_OSV=  0.000000000000000    
_AVDOM_PNO=  0.000000000000000    
_AVDOM_PAO=  0.000000000000000    
_AVDOM_LMO=  0.000000000000000    
_CC2OSV_FLAG=  0.000000000000000    
_EOMCCSD_CONV=FALSE
_TMADC2_FLAG=FALSE
_PROPADC2_FLAG=FALSE
_LEN_VirQ=  0.000000000000000    
_GRDCC2LR_FLAG=FALSE
_GRDADC2_FLAG=FALSE
_DMX_CC= -0.000000000000000    
_DMY_CC=-0.2853859370908129E-11
_DMZ_CC= 0.3791008493107942    
_DMX_NUC=  0.000000000000000    
_DMY_NUC=  0.000000000000000    
_DMZ_NUC=  1.124617958516000    
_RO_VGLOBAL=  0.000000000000000    
_OPT=FALSE
_FREQ=FALSE
_HESS=FALSE
_CMRCC_callName=EMPTY
_CMRCC_callCount=  0.000000000000000    
GX1= -0.000000000000000    
GY1= 0.5551115123125783E-16
GZ1=-0.1900853587756827    
GX2= -0.000000000000000    
GY2=  1.645045343723352    
GZ2=  1.132565055586010    
GX3= -0.000000000000000    
GY3= -1.645045343723353    
GZ3=  1.132565055586009    
[Atoms] Angs
C     1    6         0.0000000000        0.0000000000       -0.1005888400
H     2    1         0.0000000000        0.8705205068        0.5993276173
H     3    1         0.0000000000       -0.8705205068        0.5993276173
[GTO]
   1 0
 s    9  1.00
  0.6665000000D+04  0.6920001793D-03
  0.1000000000D+04  0.5329001381D-02
  0.2280000000D+03  0.2707700701D-01
  0.6471000000D+02  0.1017180264D+00
  0.2106000000D+02  0.2747400712D+00
  0.7495000000D+01  0.4485641162D+00
  0.2797000000D+01  0.2850740738D+00
  0.5215000000D+00  0.1520400394D-01
  0.1596000000D+00 -0.3191000827D-02
 s    9  1.00
  0.6665000000D+04 -0.1460000642D-03
  0.1000000000D+04 -0.1154000508D-02
  0.2280000000D+03 -0.5725002519D-02
  0.6471000000D+02 -0.2331201026D-01
  0.2106000000D+02 -0.6395502813D-01
  0.7495000000D+01 -0.1499810660D+00
  0.2797000000D+01 -0.1272620560D+00
  0.5215000000D+00  0.5445292395D+00
  0.1596000000D+00  0.5804962554D+00
 s    9  1.00
  0.6665000000D+04  0.0000000000D+00
  0.1000000000D+04  0.0000000000D+00
  0.2280000000D+03  0.0000000000D+00
  0.6471000000D+02  0.0000000000D+00
  0.2106000000D+02  0.0000000000D+00
  0.7495000000D+01  0.0000000000D+00
  0.2797000000D+01  0.0000000000D+00
  0.5215000000D+00  0.0000000000D+00
  0.1596000000D+00  0.1000000000D+01
 p    4  1.00
  0.9439000000D+01  0.3810902127D-01
  0.2002000000D+01  0.2094801169D+00
  0.5456000000D+00  0.5085572839D+00
  0.1517000000D+00  0.4688422617D+00
 p    4  1.00
  0.9439000000D+01  0.0000000000D+00
  0.2002000000D+01  0.0000000000D+00
  0.5456000000D+00  0.0000000000D+00
  0.1517000000D+00  0.1000000000D+01
 d    1  1.00
  0.5500000000D+00  0.1000000000D+01
  
   2 0
 s    4  1.00
  0.1301000000D+02  0.1968498999D-01
  0.1962000000D+01  0.1379769298D+00
  0.4446000000D+00  0.4781477569D+00
  0.1220000000D+00  0.5012397451D+00
 s    4  1.00
  0.1301000000D+02  0.0000000000D+00
  0.1962000000D+01  0.0000000000D+00
  0.4446000000D+00  0.0000000000D+00
  0.1220000000D+00  0.1000000000D+01
 p    1  1.00
  0.7270000000D+00  0.1000000000D+01
  
   3 0
 s    4  1.00
  0.1301000000D+02  0.1968498999D-01
  0.1962000000D+01  0.1379769298D+00
  0.4446000000D+00  0.4781477569D+00
  0.1220000000D+00  0.5012397451D+00
 s    4  1.00
  0.1301000000D+02  0.0000000000D+00
  0.1962000000D+01  0.0000000000D+00
  0.4446000000D+00  0.0000000000D+00
  0.1220000000D+00  0.1000000000D+01
 p    1  1.00
  0.7270000000D+00  0.1000000000D+01


[MO]
 Sym=      1.1
 Ene=     -11.2768
 Spin= Alpha
 Occup=    2.000000
1 1.00102587110527
2 -0.003735603959358
3 -0.004409473054635
4 0.0
5 0.000000000011169
6 0.004994005384387
7 0.0
8 -0.000000000003423
9 -0.002621705067689
10 -0.001206109120636
11 0.000656443256086
12 0.000549665864550
13 0.0
14 0.0
15 0.000000000001919
16 -0.004211215846403
17 0.003417875319535
18 0.0
19 0.000982482920242
20 0.000758443027465
21 -0.004211215850843
22 0.003417875320598
23 0.0
24 -0.000982482918677
25 0.000758443026136
 Sym=      2.1
 Ene=      -0.8190
 Spin= Alpha
 Occup=    1.982908
1 0.000320537603638
2 -0.61050165131276
3 0.20897545145955
4 0.0
5 0.000000010370983
6 -0.42548569746695
7 0.0
8 -0.000000002487296
9 0.061854063735801
10 0.017363036710188
11 -0.000695034789645
12 -0.016668001920543
13 0.0
14 0.0
15 0.000000000803813
16 -0.48642527035791
17 0.17934614616308
18 0.0
19 0.024975388397707
20 0.009452166922152
21 -0.48642527481919
22 0.17934614626834
23 0.0
24 -0.024975388549339
25 0.009452167303502
 Sym=      3.1
 Ene=      -0.5469
 Spin= Alpha
 Occup=    1.977336
1 0.000000000053353
2 0.000000007731237
3 -0.000000002128747
4 0.0
5 0.66096076557311
6 0.000000003479156
7 0.0
8 -0.13306421853034
9 -0.000000000857741
10 -0.000000000155919
11 0.000000000041324
12 0.000000000114594
13 0.0
14 0.0
15 0.045404596531009
16 0.55427451874570
17 -0.13495343901160
18 0.0
19 -0.006171380931083
20 -0.013796251700279
21 -0.55427451024828
22 0.13495343590005
23 0.0
24 -0.006171380439882
25 0.013796251450990
 Sym=      4.1
 Ene=      -0.4262
 Spin= Alpha
 Occup=    1.918140
1 -0.001340569704737
2 -0.66941729766684
3 -0.12318457922251
4 0.0
5 0.000000007438727
6 0.64216852014330
7 0.0
8 -0.000000001912901
9 0.032018269900923
10 -0.031135127753199
11 0.000263999447118
12 0.030871128306081
13 0.0
14 0.0
15 0.000000000592547
16 0.12339948780174
17 0.002767237823757
18 0.0
19 0.000163465365735
20 0.013589222697279
21 0.12339949668832
22 0.002767234870016
23 0.0
24 -0.000163465454301
25 0.013589222957882
 Sym=      6.1
 Ene=       0.6701
 Spin= Alpha
 Occup=    0.021031
1 -0.16677864417242
2 -1.23580759098576
3 0.37350067517426
4 0.0
5 -0.000000189963600
6 -1.08483831431655
7 0.0
8 0.000000054647999
9 0.36458020424342
10 0.069761214926313
11 -0.011159909415023
12 -0.058601305511290
13 0.0
14 0.0
15 -0.000000016160269
16 1.19761937094463
17 -0.43235172401759
18 0.0
19 0.014421238650951
20 0.022375662137522
21 1.19761903588635
22 -0.43235160470833
23 0.0
24 -0.014421236858284
25 0.022375655812041
 Sym=      7.1
 Ene=       0.6556
 Spin= Alpha
 Occup=    0.020347
1 0.000000023523089
2 0.000000168857870
3 -0.000000053550548
4 0.0
5 -1.36490815583632
6 0.000000153091727
7 0.0
8 0.39398353071214
9 -0.000000050649525
10 -0.000000010015113
11 0.000000001542775
12 0.000000008472338
13 0.0
14 0.0
15 -0.11911711863230
16 1.20342079918144
17 -0.43160112134851
18 0.0
19 0.006645650134612
20 0.022148327918822
21 -1.20342113421614
22 0.43160124269143
23 0.0
24 0.006645653971375
25 -0.022148333864904
 Sym=      5.1
 Ene=       0.1891
 Spin= Alpha
 Occup=    0.080238
1 0.0
2 0.0
3 0.0
4 1.06211142597510
5 0.0
6 0.0
7 -0.11721509527823
8 0.0
9 0.0
10 0.0
11 0.0
12 0.0
13 0.000000000042658
14 -0.22865645270425
15 0.0
16 0.0
17 0.0
18 0.013760928118385
19 0.0
20 0.0
21 0.0
22 0.0
23 0.013760928102267
24 0.0
25 0.0
 Sym=      8.1
 Ene=       0.4122
 Spin= Alpha
 Occup=   -0.000000
1 0.13236856261711
2 0.34092216198001
3 -2.13805083455041
4 0.0
5 -0.000000000929592
6 0.32128725831828
7 0.0
8 -0.000000000329763
9 -1.04934926864348
10 0.11987847155485
11 -0.10270616747944
12 -0.017172304075409
13 0.0
14 0.0
15 -0.000000000394961
16 -0.68371808266216
17 1.89636070995994
18 0.0
19 -0.11989185042641
20 -0.050091203252543
21 -0.68371807682357
22 1.89636069831716
23 0.0
24 0.11989185025410
25 -0.050091203056270
 Sym=      9.1
 Ene=       0.4740
 Spin= Alpha
 Occup=   -0.000000
1 0.000000000545467
2 0.000000001610145
3 -0.000000007523456
4 0.0
5 0.013048089644896
6 0.000000001026346
7 0.0
8 0.86545545743756
9 -0.000000003785956
10 0.000000000294325
11 -0.000000000274425
12 -0.000000000019900
13 0.0
14 0.0
15 0.18960254251620
16 0.91268657359664
17 -2.35347173185521
18 0.0
19 0.071175097107616
20 0.087704596215078
21 -0.91268657626495
22 2.35347174260864
23 0.0
24 0.071175097865211
25 -0.087704596593048
 Sym=     10.1
 Ene=       0.6559
 Spin= Alpha
 Occup=   -0.000000
1 -0.000000000903493
2 -0.000000005017720
3 0.000000005242725
4 0.0
5 -0.91773600141734
6 0.000000004073994
7 0.0
8 2.56633524739114
9 -0.000000005885214
10 -0.000000000425599
11 0.000000000370293
12 0.000000000055307
13 0.0
14 0.0
15 0.058247507311966
16 -0.54339357913425
17 -0.93446979143118
18 0.0
19 0.090466771060543
20 0.080297780343111
21 0.54339358570605
22 0.93446978547058
23 0.0
24 0.090466770791146
25 -0.080297780140110
 Sym=     11.1
 Ene=       0.6867
 Spin= Alpha
 Occup=   -0.000000
1 0.0
2 0.0
3 0.0
4 -1.36041281007836
5 0.0
6 0.0
7 1.76734482621251
8 0.0
9 0.0
10 0.0
11 0.0
12 0.0
13 -0.000000000185070
14 0.071019347232275
15 0.0
16 0.0
17 0.0
18 -0.032946466734215
19 0.0
20 0.0
21 0.0
22 0.0
23 -0.032946466798264
24 0.0
25 0.0
 Sym=     12.1
 Ene=       0.6952
 Spin= Alpha
 Occup=   -0.000000
1 0.034188419236263
2 0.43973195422480
3 0.27113127585986
4 0.0
5 -0.000000003607819
6 -1.09142875683463
7 0.0
8 0.000000010435001
9 1.86903282776774
10 0.071291123564291
11 -0.072190921260619
12 0.000899797696328
13 0.0
14 0.0
15 0.000000000136071
16 -0.81031147109557
17 0.23056692946440
18 0.0
19 0.013864982328783
20 0.011070435190175
21 -0.81031146779329
22 0.23056693881049
23 0.0
24 -0.013864981564868
25 0.011070434379319
 Sym=     13.1
 Ene=       0.9705
 Spin= Alpha
 Occup=   -0.000000
1 -0.75343376226859
2 -3.34172443228216
3 5.25892555665025
4 0.0
5 0.000000000432505
6 0.18039699745131
7 0.0
8 -0.000000001471082
9 0.67973221875547
10 0.10757600782806
11 -0.14978380180324
12 0.042207793975182
13 0.0
14 0.0
15 0.000000000217962
16 -0.53356845907277
17 -0.71629126197248
18 0.0
19 0.009844395650426
20 0.13788382455784
21 -0.53356846050327
22 -0.71629126212301
23 0.0
24 -0.009844395860986
25 0.13788382428576
 Sym=     14.1
 Ene=       1.2081
 Spin= Alpha
 Occup=   -0.000000
1 0.17545984070954
2 0.75025614330975
3 -1.23641410831393
4 0.0
5 0.000000000302836
6 -0.15481639297760
7 0.0
8 0.000000000062029
9 -0.33020176232566
10 -0.28250195232265
11 -0.34654774377872
12 0.62904969610137
13 0.0
14 0.0
15 -0.000000000363292
16 0.29697012052468
17 0.058092890896668
18 0.0
19 -0.21925268502979
20 0.27358654392783
21 0.29697012077684
22 0.058092890844489
23 0.0
24 0.21925268441285
25 0.27358654337107
 Sym=     15.1
 Ene=       1.2183
 Spin= Alpha
 Occup=   -0.000000
1 0.0
2 0.0
3 0.0
4 0.000000021360326
5 0.0
6 0.0
7 -0.000000021198087
8 0.0
9 0.0
10 0.0
11 0.0
12 0.0
13 0.64982720489828
14 0.000000080288488
15 0.0
16 0.0
17 0.0
18 0.36401230975405
19 0.0
20 0.0
21 0.0
22 0.0
23 -0.36401224625788
24 0.0
25 0.0
 Sym=     16.1
 Ene=       1.2204
 Spin= Alpha
 Occup=   -0.000000
1 0.0
2 0.0
3 0.0
4 0.20327674996520
5 0.0
6 0.0
7 -0.20031905843126
8 0.0
9 0.0
10 0.0
11 0.0
12 0.0
13 -0.000000069581125
14 0.75430235531808
15 0.0
16 0.0
17 0.0
18 0.29539687463308
19 0.0
20 0.0
21 0.0
22 0.0
23 0.29539695195096
24 0.0
25 0.0
 Sym=     17.1
 Ene=       1.7295
 Spin= Alpha
 Occup=   -0.000000
1 0.35461879432893
2 1.44781875080703
3 -2.41335343091724
4 0.0
5 0.000000000169022
6 0.18204838826840
7 0.0
8 0.000000003404743
9 -0.83042508006062
10 1.00444606666566
11 -0.73217143450994
12 -0.27227463215573
13 0.0
14 0.0
15 0.000000001679894
16 1.04603445420586
17 -0.21425757155450
18 0.0
19 0.064504082857767
20 0.11032319135654
21 1.04603445994847
22 -0.21425757280261
23 0.0
24 -0.064504087500098
25 0.11032318607114
 Sym=     18.1
 Ene=       1.7580
 Spin= Alpha
 Occup=   -0.000000
1 -0.000000001527809
2 -0.000000006131262
3 0.000000010513071
4 0.0
5 0.067052475810067
6 -0.000000000652951
7 0.0
8 0.44624184725837
9 0.000000003665109
10 -0.000000004518503
11 0.000000003862654
12 0.000000000655849
13 0.0
14 0.0
15 -0.024212232553542
16 -0.21059510864643
17 -0.024200907357774
18 0.0
19 -0.51355326845550
20 0.57568351702210
21 0.21059509878903
22 0.024200909566294
23 0.0
24 -0.51355326781721
25 -0.57568351802264
 Sym=     19.1
 Ene=       1.9099
 Spin= Alpha
 Occup=   -0.000000
1 -0.000000000461636
2 -0.000000001885302
3 0.000000001821831
4 0.0
5 -0.47606589549857
6 -0.000000000903636
7 0.0
8 0.74389385178671
9 0.000000001195903
10 -0.000000000976965
11 0.000000000335516
12 0.000000000641449
13 0.0
14 0.0
15 0.98162773264046
16 -0.90602707801896
17 0.56320225289588
18 0.0
19 -0.21091024296350
20 -0.23227631230923
21 0.90602707648428
22 -0.56320225214543
23 0.0
24 -0.21091024175441
25 0.23227631094024
 Sym=     20.1
 Ene=       2.0110
 Spin= Alpha
 Occup=   -0.000000
1 0.0
2 0.0
3 0.0
4 0.000000008307702
5 0.0
6 0.0
7 0.000000004508909
8 0.0
9 0.0
10 0.0
11 0.0
12 0.0
13 0.93641405875038
14 0.000000017943112
15 0.0
16 0.0
17 0.0
18 -0.72802530506961
19 0.0
20 0.0
21 0.0
22 0.0
23 0.72802526850077
24 0.0
25 0.0
 Sym=     21.1
 Ene=       2.0126
 Spin= Alpha
 Occup=   -0.000000
1 0.0
2 0.0
3 0.0
4 -0.36166756150190
5 0.0
6 0.0
7 -0.18764065399773
8 0.0
9 0.0
10 0.0
11 0.0
12 0.0
13 0.000000021602225
14 -0.76231602805077
15 0.0
16 0.0
17 0.0
18 0.78873293212706
19 0.0
20 0.0
21 0.0
22 0.0
23 0.78873296622615
24 0.0
25 0.0
 Sym=     22.1
 Ene=       2.3063
 Spin= Alpha
 Occup=   -0.000000
1 -0.082415730613207
2 -0.32172696234868
3 0.75300819536393
4 0.0
5 -0.000000000069378
6 0.19452380833998
7 0.0
8 -0.000000000146059
9 0.42705863572203
10 -0.14734868629001
11 -0.85431306274087
12 1.00166174903088
13 0.0
14 0.0
15 -0.000000000397905
16 -0.20092116939819
17 -0.099150340467891
18 0.0
19 0.56857815017026
20 -0.62239099166242
21 -0.20092117012699
22 -0.099150340283368
23 0.0
24 -0.56857815065508
25 -0.62239099182423
 Sym=     23.1
 Ene=       2.6051
 Spin= Alpha
 Occup=   -0.000000
1 0.26752474844309
2 1.47075059370268
3 0.72441826612766
4 0.0
5 0.000000000185151
6 1.27143622569175
7 0.0
8 0.000000000345566
9 -0.022611593995026
10 -0.70788805661415
11 0.61291173945925
12 0.094976317154897
13 0.0
14 0.0
15 0.000000000956038
16 -1.48166277037303
17 0.19550463432829
18 0.0
19 0.88321965305316
20 0.73329722275667
21 -1.48166276836457
22 0.19550463343364
23 0.0
24 -0.88321965290690
25 0.73329722274747
 Sym=     24.1
 Ene=       2.6908
 Spin= Alpha
 Occup=   -0.000000
1 -0.000000000098293
2 -0.000000000365751
3 0.000000000301580
4 0.0
5 1.67348476725433
6 -0.000000000221860
7 0.0
8 0.17586133434150
9 0.000000000317941
10 -0.000000000275368
11 -0.000000000016354
12 0.000000000291722
13 0.0
14 0.0
15 1.42751697231026
16 -1.88865425001155
17 0.32123163822103
18 0.0
19 0.91212563350839
20 0.76791211852139
21 1.88865424982083
22 -0.32123163821277
23 0.0
24 0.91212563380590
25 -0.76791211908013
